HfO2                                    
           1
     4.915028    0.000000    0.000000
     0.000000    5.783178    0.000000
     0.000000    0.000000    5.255297
   Hf   O 
     4     8
Direct configuration=     1
   0.00000000  0.42496113  0.50000000
   0.50000000  0.57503887  0.00000000
   0.00000000  0.07503887  0.00000000
   0.50000000  0.92496113  0.50000000
   0.72454262  0.64079562  0.67083966
   0.22454259  0.35920438  0.82916034
   0.27545741  0.64079562  0.32916034
   0.27545741  0.85920438  0.82916034
   0.77545738  0.35920438  0.17083966
   0.72454262  0.85920438  0.17083966
   0.22454259  0.14079562  0.32916034
   0.77545738  0.14079562  0.67083966
HfO2                                    
           1
     4.800914    0.000000    0.000000
     0.000000    5.647944    0.000000
     0.000000    0.000000    5.124817
   Hf   O 
     4     8
Direct configuration=     2
  -0.00000000  0.42436076  0.50000000
   0.50000000  0.57563924  0.00000000
   0.00000000  0.07563924  0.00000000
   0.50000000  0.92436076  0.50000000
   0.72392703  0.64060638  0.67090590
   0.22392700  0.35939362  0.82909410
   0.27607300  0.64060638  0.32909410
   0.27607300  0.85939362  0.82909410
   0.77607297  0.35939362  0.17090590
   0.72392703  0.85939362  0.17090590
   0.22392700  0.14060638  0.32909410
   0.77607297  0.14060638  0.67090590
HfO2                                    
           1
     4.871555    0.000000    0.000000
     0.000000    5.731660    0.000000
     0.000000    0.000000    5.205589
   Hf   O 
     4     8
Direct configuration=     3
  -0.00000000  0.42474131  0.50000000
   0.50000000  0.57525869  0.00000000
   0.00000000  0.07525869  0.00000000
   0.50000000  0.92474131  0.50000000
   0.72431716  0.64072633  0.67086385
   0.22431713  0.35927367  0.82913615
   0.27568287  0.64072633  0.32913615
   0.27568287  0.85927367  0.82913615
   0.77568284  0.35927367  0.17086385
   0.72431716  0.85927367  0.17086385
   0.22431713  0.14072633  0.32913615
   0.77568284  0.14072633  0.67086385
HfO2                                    
           1
     4.870957    0.000000    0.000000
     0.000000    5.730951    0.000000
     0.000000    0.000000    5.204905
   Hf   O 
     4     8
Direct configuration=     4
  -0.00000000  0.42473814  0.50000000
   0.50000000  0.57526186  0.00000000
   0.00000000  0.07526186  0.00000000
   0.50000000  0.92473814  0.50000000
   0.72431391  0.64072533  0.67086420
   0.22431388  0.35927467  0.82913580
   0.27568612  0.64072533  0.32913580
   0.27568612  0.85927467  0.82913580
   0.77568609  0.35927467  0.17086420
   0.72431391  0.85927467  0.17086420
   0.22431388  0.14072533  0.32913580
   0.77568609  0.14072533  0.67086420
HfO2                                    
           1
     4.871004    0.000000    0.000000
     0.000000    5.731006    0.000000
     0.000000    0.000000    5.204958
   Hf   O 
     4     8
Direct configuration=     5
  -0.00000000  0.42473838  0.50000000
   0.50000000  0.57526162  0.00000000
   0.00000000  0.07526162  0.00000000
   0.50000000  0.92473838  0.50000000
   0.72431416  0.64072541  0.67086417
   0.22431413  0.35927459  0.82913583
   0.27568587  0.64072541  0.32913583
   0.27568587  0.85927459  0.82913583
   0.77568584  0.35927459  0.17086417
   0.72431416  0.85927459  0.17086417
   0.22431413  0.14072541  0.32913583
   0.77568584  0.14072541  0.67086417
HfO2                                    
           1
     4.871500    0.000000    0.000000
     0.000000    5.722549    0.000000
     0.000000    0.000000    5.209174
   Hf   O 
     4     8
Direct configuration=     6
  -0.00000000  0.42486864  0.50000000
   0.50000000  0.57513136 -0.00000000
  -0.00000000  0.07513136 -0.00000000
   0.50000000  0.92486864  0.50000000
   0.72443149  0.64113442  0.67073977
   0.22443146  0.35886558  0.82926023
   0.27556854  0.64113442  0.32926023
   0.27556854  0.85886558  0.82926023
   0.77556851  0.35886558  0.17073977
   0.72443149  0.85886558  0.17073977
   0.22443146  0.14113442  0.32926023
   0.77556851  0.14113442  0.67073977
HfO2                                    
           1
     4.871850    0.000000    0.000000
     0.000000    5.716586    0.000000
     0.000000    0.000000    5.212146
   Hf   O 
     4     8
Direct configuration=     7
  -0.00000000  0.42496062  0.50000000
   0.50000000  0.57503938 -0.00000000
  -0.00000000  0.07503938 -0.00000000
   0.50000000  0.92496062  0.50000000
   0.72451422  0.64142325  0.67065212
   0.22451419  0.35857675  0.82934788
   0.27548581  0.64142325  0.32934788
   0.27548581  0.85857675  0.82934788
   0.77548578  0.35857675  0.17065212
   0.72451422  0.85857675  0.17065212
   0.22451419  0.14142325  0.32934788
   0.77548578  0.14142325  0.67065212
HfO2                                    
           1
     4.874660    0.000000    0.000000
     0.000000    5.714512    0.000000
     0.000000    0.000000    5.209385
   Hf   O 
     4     8
Direct configuration=     8
  -0.00000000  0.42513048  0.50000000
   0.50000000  0.57486952 -0.00000000
  -0.00000000  0.07486952 -0.00000000
   0.50000000  0.92513048  0.50000000
   0.72451751  0.64193419  0.67089086
   0.22451748  0.35806581  0.82910914
   0.27548252  0.64193419  0.32910914
   0.27548252  0.85806581  0.82910914
   0.77548249  0.35806581  0.17089086
   0.72451751  0.85806581  0.17089086
   0.22451748  0.14193419  0.32910914
   0.77548249  0.14193419  0.67089086
HfO2                                    
           1
     4.878672    0.000000    0.000000
     0.000000    5.711551    0.000000
     0.000000    0.000000    5.205442
   Hf   O 
     4     8
Direct configuration=     9
  -0.00000000  0.42537301  0.50000000
   0.50000000  0.57462699 -0.00000000
  -0.00000000  0.07462699 -0.00000000
   0.50000000  0.92537301  0.50000000
   0.72452219  0.64266376  0.67123180
   0.22452216  0.35733624  0.82876820
   0.27547784  0.64266376  0.32876820
   0.27547784  0.85733624  0.82876820
   0.77547781  0.35733624  0.17123180
   0.72452219  0.85733624  0.17123180
   0.22452216  0.14266376  0.32876820
   0.77547781  0.14266376  0.67123180
HfO2                                    
           1
     4.880452    0.000000   -0.000000
     0.000000    5.710169    0.000000
     0.000000    0.000000    5.202649
   Hf   O 
     4     8
Direct configuration=    10
  -0.00000000  0.42584753  0.50000000
   0.50000000  0.57415247 -0.00000000
  -0.00000000  0.07415247 -0.00000000
   0.50000000  0.92584753  0.50000000
   0.72474554  0.64294091  0.67147384
   0.22474551  0.35705909  0.82852616
   0.27525449  0.64294091  0.32852616
   0.27525449  0.85705909  0.82852616
   0.77525446  0.35705909  0.17147384
   0.72474554  0.85705909  0.17147384
   0.22474551  0.14294091  0.32852616
   0.77525446  0.14294091  0.67147384
HfO2                                    
           1
     4.885517    0.000000   -0.000000
     0.000000    5.706236    0.000000
     0.000000    0.000000    5.194701
   Hf   O 
     4     8
Direct configuration=    11
  -0.00000000  0.42719781  0.50000000
   0.50000000  0.57280219 -0.00000000
  -0.00000000  0.07280219 -0.00000000
   0.50000000  0.92719781  0.50000000
   0.72538070  0.64372957  0.67216278
   0.22538067  0.35627043  0.82783722
   0.27461933  0.64372957  0.32783722
   0.27461933  0.85627043  0.82783722
   0.77461930  0.35627043  0.17216278
   0.72538070  0.85627043  0.17216278
   0.22538067  0.14372957  0.32783722
   0.77461930  0.14372957  0.67216278
HfO2                                    
           1
     4.887545    0.000000   -0.000000
     0.000000    5.704661    0.000000
     0.000000    0.000000    5.191517
   Hf   O 
     4     8
Direct configuration=    12
  -0.00000000  0.42773910  0.50000000
   0.50000000  0.57226090 -0.00000000
  -0.00000000  0.07226090 -0.00000000
   0.50000000  0.92773910  0.50000000
   0.72563488  0.64404572  0.67243919
   0.22563485  0.35595428  0.82756081
   0.27436515  0.64404572  0.32756081
   0.27436515  0.85595428  0.82756081
   0.77436512  0.35595428  0.17243919
   0.72563488  0.85595428  0.17243919
   0.22563485  0.14404572  0.32756081
   0.77436512  0.14404572  0.67243919
HfO2                                    
           1
     4.887461    0.000000   -0.000000
     0.000000    5.701275    0.000000
     0.000000    0.000000    5.191339
   Hf   O 
     4     8
Direct configuration=    13
  -0.00000000  0.42804296  0.50000000
   0.50000000  0.57195704 -0.00000000
  -0.00000000  0.07195704 -0.00000000
   0.50000000  0.92804296  0.50000000
   0.72559577  0.64434581  0.67273292
   0.22559574  0.35565419  0.82726708
   0.27440426  0.64434581  0.32726708
   0.27440426  0.85565419  0.82726708
   0.77440423  0.35565419  0.17273292
   0.72559577  0.85565419  0.17273292
   0.22559574  0.14434581  0.32726708
   0.77440423  0.14434581  0.67273292
HfO2                                    
           1
     4.887422    0.000000   -0.000000
     0.000000    5.699675    0.000000
     0.000000    0.000000    5.191256
   Hf   O 
     4     8
Direct configuration=    14
  -0.00000000  0.42818663  0.50000000
   0.50000000  0.57181337 -0.00000000
  -0.00000000  0.07181337 -0.00000000
   0.50000000  0.92818663  0.50000000
   0.72557730  0.64448768  0.67287172
   0.22557727  0.35551232  0.82712828
   0.27442273  0.64448768  0.32712828
   0.27442273  0.85551232  0.82712828
   0.77442270  0.35551232  0.17287172
   0.72557730  0.85551232  0.17287172
   0.22557727  0.14448768  0.32712828
   0.77442270  0.14448768  0.67287172
HfO2                                    
           1
     4.890173    0.000000   -0.000000
     0.000000    5.697901    0.000000
     0.000000    0.000000    5.195022
   Hf   O 
     4     8
Direct configuration=    15
  -0.00000000  0.42832341  0.50000000
   0.50000000  0.57167659 -0.00000000
  -0.00000000  0.07167659 -0.00000000
   0.50000000  0.92832341  0.50000000
   0.72556154  0.64464775  0.67298841
   0.22556151  0.35535225  0.82701159
   0.27443849  0.64464775  0.32701159
   0.27443849  0.85535225  0.82701159
   0.77443846  0.35535225  0.17298841
   0.72556154  0.85535225  0.17298841
   0.22556151  0.14464775  0.32701159
   0.77443846  0.14464775  0.67298841
HfO2                                    
           1
     4.888851    0.000000   -0.000000
     0.000000    5.698754    0.000000
     0.000000    0.000000    5.193212
   Hf   O 
     4     8
Direct configuration=    16
  -0.00000000  0.42825767  0.50000000
   0.50000000  0.57174233 -0.00000000
  -0.00000000  0.07174233 -0.00000000
   0.50000000  0.92825767  0.50000000
   0.72556911  0.64457082  0.67293238
   0.22556908  0.35542918  0.82706762
   0.27443092  0.64457082  0.32706762
   0.27443092  0.85542918  0.82706762
   0.77443089  0.35542918  0.17293238
   0.72556911  0.85542918  0.17293238
   0.22556908  0.14457082  0.32706762
   0.77443089  0.14457082  0.67293238
